LAMMPS patchy particle input data file

   13 atoms
   3 atom types

   -6 6 xlo xhi #-2.82842712474619 2.82842712474619 xlo xhi
   -6 6 ylo yhi #-2.82842712474619 2.82842712474619 ylo yhi
   -0.5 0.5 zlo zhi


   Masses

   1  1
   2  1
   3  1

   Atoms

   1   1     1      -1.000000      1.000000       0.000000
   2   1     1      0.000000      1.000000       0.000000
   3   1     1      1.000000      1.000000       0.000000
   4   1     1      -1.000000      0.000000       0.000000
   5   1     3      0.000000      0.000000       0.000000
   6   1     1      1.000000      0.000000       0.000000
   7   1     1      -1.000000      -1.000000       0.000000
   8   1     1      0.000000      -1.000000       0.000000
   9   1     1      1.000000      -1.000000       0.000000
   10   1     2      -1.0 1.5 0.000000
   11   1     2      1.0 1.5 0.000000
   12   1     2      1.0 -1.5 0.000000
   13   1     2      -1.5 0.0 0.000000
